144
Lattice="10.306268855 -1.5546e-05 -0.159541941 -2.597e-05 11.617061705 -0.000260943 -0.114157853 -0.000155707 55.0" Properties=species:S:1:pos:R:3:initial_charges:R:1:tags:I:1:forces:R:3 energy=-1103.65927303 pbc="T T T"
F        5.15313000       5.80853000      35.00000000      -0.18300500        0      -0.00063600      -0.00018600       0.01021600
O        1.57158000       0.96807000       0.92126000      -0.93354600        0      -1.64631600      -0.00014000      -0.88257800
O        1.57158000       4.84042000       0.92118000      -0.93333900        0      -1.61376500      -0.00001900      -0.87298700
O        1.57157000       8.71278000       0.92110000      -0.93333800        0      -1.61365300      -0.00033300      -0.87314700
O        6.72471000       2.90423000       0.84145000      -0.93321100        0      -1.61806100      -0.00091900      -0.87160700
O        6.72471000       6.77659000       0.84137000      -0.93387600        0      -1.62733900      -0.00014500      -0.87971800
O        6.72470000      10.64894000       0.84127000      -0.93334200        0      -1.61822200       0.00067600      -0.87160800
O        9.64550000       2.90421000       1.63348000      -1.05811700        0       0.14827300      -0.00540000      -1.11767700
O        9.64549000       6.77657000       1.63338000      -1.05803400        0       0.15070200      -0.00049700      -1.12229100
O        9.64548000      10.64891000       1.63330000      -1.05814300        0       0.14828600       0.00534800      -1.11764100
O        4.49237000       0.96804000       1.71329000      -1.05853100        0       0.15485800      -0.00013900      -1.11359400
O        4.49236000       4.84039000       1.71321000      -1.05806600        0       0.15073400      -0.00647100      -1.12010200
O        4.49234000       8.71275000       1.71311000      -1.05806500        0       0.15086200       0.00603800      -1.12072000
O        8.13530000       0.96802000       2.22329000      -1.04081300        0       0.49079000       0.00042000       0.10131600
O        8.13529000       4.84038000       2.22321000      -1.04042900        0       0.49414600      -0.00908400       0.08929300
O        8.13529000       8.71273000       2.22311000      -1.04042800        0       0.49399700       0.00948500       0.08934100
O        2.98216000       2.90421000       2.30302000      -1.04053900        0       0.49830500       0.01454800       0.09417000
O        2.98215000       6.77656000       2.30294000      -1.04060400        0       0.49465900       0.00024400       0.08314400
O        2.98214000      10.64891000       2.30284000      -1.04053500        0       0.49836100      -0.01391200       0.09417500
O        0.74981000       0.96801000       3.17486000      -0.97348800        0      -0.46503600       0.00035100       1.97635500
O        0.74980000       4.84037000       3.17477000      -0.97560700        0      -0.34841600      -0.00034200       2.08411500
O        0.74979000       8.71272000       3.17468000      -0.97558200        0      -0.34825300       0.00072200       2.08446400
O        5.90294000       2.90418000       3.09504000      -0.97692100        0      -0.35973500      -0.00731800       2.08362000
O        5.90293000       6.77653000       3.09495000      -0.97725700        0      -0.38614800       0.00014400       2.07084700
O        5.90293000      10.64889000       3.09487000      -0.97693100        0      -0.35990700       0.00762800       2.08362200
O        2.89619000       0.96801000       4.47007000      -1.02781500        0       0.04494200      -0.00029200       0.14933400
O        2.91578000       4.84980000       4.48443000      -1.02937300        0       0.02532700       0.00027600       0.09409400
O        2.91576000       8.70333000       4.48434000      -1.02953900        0       0.02540900      -0.00027500       0.09416100
O        8.06548000       2.90580000       4.40239000      -1.02774400        0       0.01512300       0.00134000       0.10052300
O        8.06614000       6.77661000       4.39908000      -1.02804200        0       0.01645400      -0.00010000       0.08506600
O        8.06546000      10.64727000       4.40222000      -1.02763000        0       0.01493500      -0.00114400       0.10121800
O        0.69024000       2.90788000       5.32199000      -1.02639000        0      -0.01119700      -0.02622600       0.03233600
O        0.70125000       6.77662000       5.32570000      -1.02552200        0      -0.00776700      -0.00070700       0.03599000
O        0.69021000      10.64535000       5.32172000      -1.02638600        0      -0.01114200       0.02498800       0.03307500
O        5.84803000       0.96800000       5.25235000      -1.02818200        0      -0.02566600      -0.00023500       0.04008100
O        5.84872000       4.84204000       5.24357000      -1.02636400        0      -0.00857200      -0.02040800       0.03775300
O        5.84871000       8.71103000       5.24342000      -1.02724600        0      -0.00887900       0.02051700       0.03835500
O        9.53983000       0.96803000       5.88229000      -1.03072900        0       0.01073700       0.00053500       0.03666300
O        9.55544000       4.84254000       5.88055000      -1.02373700        0      -0.00903100      -0.01370200       0.03529200
O        9.55549000       8.71063000       5.88050000      -1.02356800        0      -0.00929900       0.01450500       0.03493900
O        4.39442000       2.90551000       5.94356000      -1.02467300        0      -0.00706000      -0.04391900       0.03862500
O        4.41155000       6.77653000       5.99747000      -1.02892500        0      -0.01506300       0.00070600       0.00636500
O        4.39435000      10.64755000       5.94336000      -1.02450000        0      -0.00648400       0.04465400       0.03844000
O        2.12282000       0.96810000       6.88180000      -1.02413700        0       0.09102100      -0.00005400       0.14942600
O        2.17387000       4.83941000       6.90195000      -1.02662400        0       0.01996600      -0.00647700       0.05615500
O        2.17392000       8.71370000       6.90187000      -1.02662700        0       0.01900400       0.00688300       0.05593100
O        7.31879000       2.91525000       6.81977000      -1.02955900        0       0.00611600      -0.02313800       0.10372900
O        7.32265000       6.77659000       6.81068000      -1.02619100        0       0.00327900      -0.00002600       0.06704700
O        7.31876000      10.63786000       6.81968000      -1.02954800        0       0.00557100       0.02342900       0.10229200
O        4.33332000       0.96799000       8.01075000      -1.02671100        0       0.40982600       0.00015700       0.41890100
O        4.42997000       4.79528000       8.08137000      -1.03078100        0       0.02069700      -0.01542900       0.03095900
O        4.42996000       8.75797000       8.08130000      -1.03075100        0       0.02066000       0.01523700       0.03143900
O        9.59045000       2.92214000       7.98996000      -1.02144200        0      -0.04453000      -0.00804700       0.02975500
O        9.57074000       6.77682000       7.98260000      -1.02641000        0       0.01115100      -0.00112100       0.02003800
O        9.59033000      10.63101000       7.98974000      -1.02169100        0      -0.04265300       0.00825600       0.03156700
O        2.21530000       2.90203000       9.01498000      -1.02564400        0       0.02625100      -0.06825500       0.00921700
O        2.22513000       6.77662000       9.00349000      -1.02934600        0       0.01053100       0.00008900      -0.00720700
O        2.21523000      10.65126000       9.01475000      -1.02545000        0       0.02598800       0.06692000       0.00939000
O        7.48660000       0.96812000       8.88166000      -1.03951100        0      -0.33022300      -0.00035000       0.10875700
O        7.36510000       4.84483000       8.91150000      -1.02766200        0      -0.01011600      -0.07693800       0.00817900
O        7.36509000       8.70847000       8.91142000      -1.02777800        0      -0.01068800       0.07505200       0.00820500
O        0.72502000       0.96807000       9.68588000      -1.03295200        0       0.06357700       0.00046400      -0.00036700
O        0.74144000       4.84371000       9.66497000      -1.02195800        0       0.00800100      -0.03466600       0.00281400
O        0.74138000       8.70949000       9.66498000      -1.02177600        0       0.00874400       0.03632200       0.00253700
O        5.96304000       2.90393000       9.70264000      -1.06685800        0      -0.07968100      -0.36569500       0.02115000
O        5.88491000       6.77658000       9.58631000      -1.02667000        0      -0.01108800       0.00126100       0.01664900
O        5.96323000      10.64933000       9.70266000      -1.06726500        0      -0.08164600       0.36657900       0.02085200
O        3.70524000       0.96812000      10.54174000      -1.06323200        0       0.34693100       0.00110500      -0.20264800
O        3.71047000       4.84573000      10.53759000      -1.03329400        0       0.01246400      -0.01800700      -0.04053700
O        3.71034000       8.70758000      10.53752000      -1.03335200        0       0.01322000       0.01845400      -0.04146500
O        8.86807000       2.91122000      10.46050000      -1.03427000        0      -0.04310100      -0.02008500      -0.08059000
O        8.85922000       6.77655000      10.43763000      -1.02938300        0      -0.01970300       0.00043500      -0.05246300
O        8.86805000      10.64205000      10.46037000      -1.03432800        0      -0.04292900       0.01983500      -0.08120300
O        5.96858000       4.85710000      11.68521000      -1.00750900        0      -0.01320000      -0.00956600      -0.09025700
O        5.96839000       8.69586000      11.68503000      -1.00738400        0      -0.01164200       0.01049600      -0.08833500
O        0.81599000       2.94997000      11.76428000      -1.00745000        0      -0.01127700      -0.01181500      -0.07758300
O        0.82162000       6.77655000      11.74124000      -1.00887500        0      -0.01175000       0.00020000      -0.05939600
O        0.81602000      10.60338000      11.76414000      -1.00726700        0      -0.01204200       0.01170000      -0.07896700
O        3.63485000       2.93068000      12.62431000      -1.05397900        0       0.02236200      -0.06695400      -0.05375300
O        3.72425000       6.77674000      12.64518000      -1.04428700        0       0.00739400       0.00001500      -0.01253400
O        3.63497000      10.62291000      12.62430000      -1.05356700        0       0.02205700       0.06495400      -0.05407100
O        8.94462000       0.96808000      12.57239000      -1.06533200        0       0.00074400       0.00063400      -0.01388900
O        8.86698000       4.85956000      12.51253000      -1.04622500        0      -0.00587400      -0.02708100      -0.02749700
O        8.86696000       8.69375000      12.51252000      -1.04617400        0      -0.00628300       0.02740300      -0.02748600
O        2.20246000       0.96819000      13.54863000      -1.07057300        0       0.04810800       0.00026100      -0.05059600
O        2.31132000       4.86755000      13.58115000      -1.06925800        0       0.02029400      -0.02274700      -0.03417600
O        2.31128000       8.68591000      13.58087000      -1.06898700        0       0.02021400       0.02198500      -0.03364800
O        7.52801000       2.95971000      13.52643000      -1.09605300        0      -0.00580300      -0.01913000      -0.03658800
O        7.47525000       6.77681000      13.48033000      -1.06768300        0       0.00257800      -0.00068300      -0.02887000
O        7.52784000      10.59370000      13.52613000      -1.09588500        0      -0.00568800       0.01856800      -0.03608500
O        5.36004000       0.96866000      13.47720000      -0.97905300        0      -0.10272100      -0.00120400      -0.07055400
O        5.29936000       4.82178000      14.11696000      -0.91305900        0      -0.00616700      -0.00467100      -0.06882900
O        5.29927000       8.73210000      14.11683000      -0.91274400        0      -0.00554900       0.00325900      -0.06977800
O        0.11348000       2.96262000      14.21309000      -0.91136300        0      -0.01545200       0.00066400      -0.06799100
O        0.13658000       6.77682000      14.18075000      -0.91184600        0      -0.00919200      -0.00056400      -0.06309000
O        0.11340000      10.59054000      14.21282000      -0.91195100        0      -0.01581700       0.00002700      -0.06639400
Ti      10.00699000       0.96804000       1.49234000       2.01062700        0       2.04618800      -0.00040500       0.48962500
Ti      10.00698000       4.84039000       1.49226000       2.01096000        0       2.04938400       0.00481700       0.52872900
Ti      10.00698000       8.71274000       1.49218000       2.01093000        0       2.04892300      -0.00462100       0.52850300
Ti       4.85385000       2.90422000       1.57207000       2.01100300        0       2.03759900       0.00491700       0.51493600
Ti       4.85385000       6.77657000       1.57199000       2.01081100        0       2.05122700       0.00004500       0.51912200
Ti       4.85384000      10.64893000       1.57190000       2.01106300        0       2.03754100      -0.00526000       0.51501100
Ti       7.77381000       2.90420000       2.36442000       2.01462700        0      -0.68360300       0.01004800      -0.66561100
Ti       7.77379000       6.77655000       2.36433000       2.01510800        0      -0.68181100       0.00033800      -0.65816100
Ti       7.77378000      10.64891000       2.36425000       2.01465400        0      -0.68324300      -0.01021200      -0.66561400
Ti       2.62068000       0.96803000       2.44424000       2.01425800        0      -0.68396400      -0.00011500      -0.71711000
Ti       2.62066000       4.84039000       2.44415000       2.01499200        0      -0.69038400       0.00676100      -0.64466000
Ti       2.62065000       8.71273000       2.44406000       2.01498300        0      -0.69037100      -0.00659400      -0.64478600
Ti       1.07549000       0.96806000       5.22483000       2.05236300        0      -0.06059000      -0.00007600      -0.15446700
Ti       1.09897000       4.84080000       5.23554000       2.05363800        0      -0.01000800       0.02174100      -0.10975100
Ti       1.09895000       8.71234000       5.23545000       2.05351800        0      -0.01003200      -0.02102600      -0.11016800
Ti       6.24740000       2.90474000       5.15375000       2.05467500        0      -0.00037300       0.02643800      -0.14068000
Ti       6.24759000       6.77654000       5.15416000       2.05430200        0       0.00897700      -0.00014100      -0.11379200
Ti       6.24740000      10.64827000       5.15362000       2.05482600        0      -0.00056400      -0.02579900      -0.14097400
Ti       9.15980000       2.90817000       6.01619000       2.04862900        0       0.00745500       0.02143500      -0.11195200
Ti       9.16305000       6.77662000       6.01065000       2.04665300        0       0.00156200      -0.00039500      -0.07988600
Ti       9.15981000      10.64501000       6.01605000       2.04856000        0       0.00726000      -0.02144300      -0.11266800
Ti       3.99202000       0.96803000       6.07397000       2.04738300        0      -0.04131900      -0.00038100      -0.33602400
Ti       4.01142000       4.83857000       6.10070000       2.05204200        0      -0.01923500       0.02842700      -0.08664200
Ti       4.01136000       8.71453000       6.10059000       2.05215400        0      -0.01831400      -0.02846100      -0.08661600
Ti       2.57222000       0.96812000       8.85486000       2.04993500        0      -0.28697400      -0.00046400      -0.05739800
Ti       2.59612000       4.84044000       8.89376000       2.04588300        0      -0.00991200       0.05647900      -0.02647900
Ti       2.59607000       8.71283000       8.89366000       2.04586500        0      -0.00985800      -0.05628500      -0.02581800
Ti       7.76340000       2.90359000       8.80717000       2.04014100        0       0.15961600       0.21020000      -0.07658700
Ti       7.73610000       6.77662000       8.79739000       2.04673800        0       0.04294500       0.00023600      -0.03638500
Ti       7.76335000      10.64966000       8.80698000       2.04052100        0       0.15957900      -0.21000900      -0.07640200
Ti       0.34621000       2.90675000       9.77592000       2.04894700        0       0.00163900       0.05742100       0.04869600
Ti       0.33834000       6.77664000       9.76177000       2.05527800        0      -0.00011600      -0.00043100       0.02913700
Ti       0.34615000      10.64653000       9.77579000       2.04902200        0       0.00224500      -0.05769000       0.04791000
Ti       5.54202000       0.96816000       9.57936000       1.83745300        0      -0.16718500      -0.00136700      -0.32701400
Ti       5.50677000       4.83570000       9.70473000       2.05047700        0      -0.06479400       0.16530200       0.03125100
Ti       5.50675000       8.71759000       9.70462000       2.05039800        0      -0.06493900      -0.16554600       0.03117800
Ti       3.83546000       0.96820000      12.46000000       1.96535200        0      -0.03290100      -0.00048500       0.33440900
Ti       4.12365000       4.84374000      12.60779000       2.03066400        0      -0.00382400       0.03814200       0.09407300
Ti       4.12358000       8.70969000      12.60763000       2.03026800        0      -0.00498800      -0.03700600       0.09371000
Ti       9.27728000       2.93605000      12.50532000       2.01934300        0       0.01181000       0.02871800       0.09602200
Ti       9.28232000       6.77669000      12.50109000       2.03004500        0       0.01955300      -0.00046500       0.07392400
Ti       9.27718000      10.61715000      12.50506000       2.01995800        0       0.01247700      -0.02778600       0.09608400
Ti       1.76333000       2.96483000      13.36732000       2.00832300        0      -0.02248400       0.03516700       0.10674300
Ti       1.79609000       6.77666000      13.33240000       2.00997500        0      -0.01488000       0.00054600       0.08175300
Ti       1.76325000      10.58855000      13.36720000       2.00817000        0      -0.02084200      -0.03439300       0.10601900
Ti       7.22420000       0.96815000      13.60254000       1.74735900        0       0.03600900       0.00025500       0.06197200
Ti       6.96315000       4.85536000      13.26358000       2.01628200        0       0.01067400       0.02226600       0.08788900
Ti       6.96297000       8.69802000      13.26345000       2.01658600        0       0.01166100      -0.02199400       0.08748900
144
Lattice="10.306268855 -1.5546e-05 -0.159541941 -2.597e-05 11.617061705 -0.000260943 -0.114157853 -0.000155707 55.0" Properties=species:S:1:pos:R:3:initial_charges:R:1:tags:I:1:forces:R:3 energy=-1103.66044415 pbc="T T T"
F        5.15313000       5.80853000      33.00000000      -0.18452000        0      -0.00574800       0.00031300      -0.00938000
O        1.57158000       0.96807000       0.92126000      -0.93422100        0      -1.64803300      -0.00014600      -0.89327500
O        1.57158000       4.84042000       0.92118000      -0.93399800        0      -1.61545000       0.00004500      -0.88336600
O        1.57157000       8.71278000       0.92110000      -0.93401100        0      -1.61533500      -0.00040900      -0.88352800
O        6.72471000       2.90423000       0.84145000      -0.93393600        0      -1.61998400      -0.00090400      -0.88191600
O        6.72471000       6.77659000       0.84137000      -0.93456800        0      -1.62926000      -0.00016500      -0.88985200
O        6.72470000      10.64894000       0.84127000      -0.93400800        0      -1.62014100       0.00066900      -0.88190900
O        9.64550000       2.90421000       1.63348000      -1.05804300        0       0.14874800      -0.00542100      -1.12508900
O        9.64549000       6.77657000       1.63338000      -1.05821300        0       0.15107700      -0.00052100      -1.12942600
O        9.64548000      10.64891000       1.63330000      -1.05824500        0       0.14876500       0.00537800      -1.12505000
O        4.49237000       0.96804000       1.71329000      -1.05872100        0       0.15546400      -0.00013400      -1.12115500
O        4.49236000       4.84039000       1.71321000      -1.05803800        0       0.15119900      -0.00631400      -1.12729200
O        4.49234000       8.71275000       1.71311000      -1.05821600        0       0.15132300       0.00585200      -1.12786400
O        8.13530000       0.96802000       2.22329000      -1.04084300        0       0.49125000       0.00041300       0.09495700
O        8.13529000       4.84038000       2.22321000      -1.04042300        0       0.49454600      -0.00885100       0.08342000
O        8.13529000       8.71273000       2.22311000      -1.04042300        0       0.49440800       0.00923800       0.08345500
O        2.98216000       2.90421000       2.30302000      -1.04056400        0       0.49906800       0.01483100       0.08798800
O        2.98215000       6.77656000       2.30294000      -1.04062900        0       0.49537700       0.00022600       0.07732200
O        2.98214000      10.64891000       2.30284000      -1.04051000        0       0.49909600      -0.01421100       0.08800900
O        0.74981000       0.96801000       3.17486000      -0.97337800        0      -0.46699100       0.00035100       1.96508200
O        0.74980000       4.84037000       3.17477000      -0.97546000        0      -0.35024300      -0.00005800       2.07364400
O        0.74979000       8.71272000       3.17468000      -0.97550600        0      -0.35009200       0.00042300       2.07400800
O        5.90294000       2.90418000       3.09504000      -0.97684800        0      -0.36165800      -0.00714400       2.07287800
O        5.90293000       6.77653000       3.09495000      -0.97698400        0      -0.38815400       0.00011500       2.06035300
O        5.90293000      10.64889000       3.09487000      -0.97682900        0      -0.36182300       0.00745300       2.07284200
O        2.89619000       0.96801000       4.47007000      -1.02810100        0       0.04316200      -0.00027900       0.13870700
O        2.91578000       4.84980000       4.48443000      -1.02947400        0       0.02321500       0.00076300       0.08460800
O        2.91576000       8.70333000       4.48434000      -1.02964000        0       0.02328800      -0.00079800       0.08468200
O        8.06548000       2.90580000       4.40239000      -1.02790600        0       0.01269100       0.00167600       0.09067900
O        8.06614000       6.77661000       4.39908000      -1.02820400        0       0.01411000      -0.00011800       0.07544200
O        8.06546000      10.64727000       4.40222000      -1.02789900        0       0.01253100      -0.00147700       0.09136900
O        0.69024000       2.90788000       5.32199000      -1.02645500        0      -0.01075600      -0.02524900       0.02813900
O        0.70125000       6.77662000       5.32570000      -1.02570700        0      -0.00701000      -0.00072400       0.03235000
O        0.69021000      10.64535000       5.32172000      -1.02645100        0      -0.01070000       0.02400700       0.02886700
O        5.84803000       0.96800000       5.25235000      -1.02829600        0      -0.02451100      -0.00021800       0.03422200
O        5.84872000       4.84204000       5.24357000      -1.02672800        0      -0.00795400      -0.01994700       0.03379400
O        5.84871000       8.71103000       5.24342000      -1.02727900        0      -0.00827400       0.01999300       0.03439600
O        9.53983000       0.96803000       5.88229000      -1.03069500        0       0.01207400       0.00054100       0.03158900
O        9.55544000       4.84254000       5.88055000      -1.02366400        0      -0.00732600      -0.01316700       0.03083600
O        9.55549000       8.71063000       5.88050000      -1.02362100        0      -0.00760100       0.01394500       0.03048100
O        4.39442000       2.90551000       5.94356000      -1.02463800        0      -0.00552800      -0.04234400       0.03249100
O        4.41155000       6.77653000       5.99747000      -1.02878200        0      -0.01350000       0.00069500       0.00188300
O        4.39435000      10.64755000       5.94336000      -1.02449700        0      -0.00496700       0.04310700       0.03241400
O        2.12282000       0.96810000       6.88180000      -1.02408900        0       0.08778500       0.00001600       0.13492600
O        2.17387000       4.83941000       6.90195000      -1.02653500        0       0.01851300      -0.00538200       0.04361600
O        2.17392000       8.71370000       6.90187000      -1.02653900        0       0.01755100       0.00577800       0.04341100
O        7.31879000       2.91525000       6.81977000      -1.02951600        0       0.00583400      -0.02141200       0.09041900
O        7.32265000       6.77659000       6.81068000      -1.02614500        0       0.00184800      -0.00004900       0.05515900
O        7.31876000      10.63786000       6.81968000      -1.02953500        0       0.00524100       0.02172100       0.08892400
O        4.33332000       0.96799000       8.01075000      -1.02666000        0       0.40564900      -0.00034200       0.40378500
O        4.42997000       4.79528000       8.08137000      -1.03088100        0       0.01858200      -0.01334700       0.02026900
O        4.42996000       8.75797000       8.08130000      -1.03085500        0       0.01852000       0.01313700       0.02073500
O        9.59045000       2.92214000       7.98996000      -1.02168000        0      -0.04709600      -0.00675500       0.01903300
O        9.57074000       6.77682000       7.98260000      -1.02654400        0       0.00883200      -0.00114700       0.00985200
O        9.59033000      10.63101000       7.98974000      -1.02167300        0      -0.04516900       0.00697100       0.02078300
O        2.21530000       2.90203000       9.01498000      -1.02565800        0       0.02527200      -0.06560200       0.00637600
O        2.22513000       6.77662000       9.00349000      -1.02947100        0       0.01105500       0.00007000      -0.00963700
O        2.21523000      10.65126000       9.01475000      -1.02554000        0       0.02506500       0.06428500       0.00657600
O        7.48660000       0.96812000       8.88166000      -1.03931800        0      -0.32470600      -0.00050900       0.10481400
O        7.36510000       4.84483000       8.91150000      -1.02789500        0      -0.00909800      -0.07552700       0.00548100
O        7.36509000       8.70847000       8.91142000      -1.02789300        0      -0.00966500       0.07350700       0.00548800
O        0.72502000       0.96807000       9.68588000      -1.03286300        0       0.06321900       0.00047100      -0.00210600
O        0.74144000       4.84371000       9.66497000      -1.02173000        0       0.00903300      -0.03337600       0.00077100
O        0.74138000       8.70949000       9.66498000      -1.02171700        0       0.00979400       0.03498400       0.00052600
O        5.96304000       2.90393000       9.70264000      -1.06636800        0      -0.07654300      -0.35739100       0.01971900
O        5.88491000       6.77658000       9.58631000      -1.02653700        0      -0.00959400       0.00124600       0.01421900
O        5.96323000      10.64933000       9.70266000      -1.06691300        0      -0.07808800       0.35804200       0.01829000
O        3.70524000       0.96812000      10.54174000      -1.06315400        0       0.34160700       0.00155300      -0.20646600
O        3.71047000       4.84573000      10.53759000      -1.03335000        0       0.01101100      -0.01617900      -0.04803600
O        3.71034000       8.70758000      10.53752000      -1.03278400        0       0.01179100       0.01659800      -0.04893300
O        8.86807000       2.91122000      10.46050000      -1.03396200        0      -0.04334800      -0.01840800      -0.08880800
O        8.85922000       6.77655000      10.43763000      -1.02915600        0      -0.02062000       0.00042000      -0.06064300
O        8.86805000      10.64205000      10.46037000      -1.03419500        0      -0.04308400       0.01813200      -0.08928500
O        5.96858000       4.85710000      11.68521000      -1.00765700        0      -0.01570400      -0.00811500      -0.09555700
O        5.96839000       8.69586000      11.68503000      -1.00754500        0      -0.01409600       0.00903800      -0.09343800
O        0.81599000       2.94997000      11.76428000      -1.00774000        0      -0.01373800      -0.01079500      -0.08165000
O        0.82162000       6.77655000      11.74124000      -1.00901800        0      -0.01406100       0.00021400      -0.06435100
O        0.81602000      10.60338000      11.76414000      -1.00739700        0      -0.01450300       0.01066200      -0.08296000
O        3.63485000       2.93068000      12.62431000      -1.05406600        0       0.02206100      -0.06575000      -0.04986200
O        3.72425000       6.77674000      12.64518000      -1.04427200        0       0.00784300       0.00003700      -0.01010400
O        3.63497000      10.62291000      12.62430000      -1.05359700        0       0.02169000       0.06372600      -0.05011600