25
Lattice="8.25412627 0.0 0.0 -4.12706313 7.14828303 0.0 0.0 0.0 30.32759644" Properties=species:S:1:pos:R:3:initial_charges:R:1:forces:R:3 energy=-99.61141988 pbc="T T T"
Ge       0.00000000       0.00000000      12.21528000      -0.06536400      -0.00163600      -0.00094500      -0.39066500
Ge       2.06353000       1.19138000      18.95475000       0.84304800      -0.00000000      -0.00000000     -70.38431200
Ge       0.00000000       2.38276000      15.58501000       0.02378100      -0.08625400       0.04979900      -0.03744500
Ge       0.00000000       0.00000000      14.74258000       0.02665600      -0.02082600      -0.01202400       0.20820800
Ge       2.06353000       1.19138000      11.37285000       0.03893700      -0.00000000      -0.00000000       0.24532900
Ge       0.00000000       2.38276000      18.11231000      -0.08522600      -0.66740900       0.38532900      -0.48529300
Ge      -2.06353000       3.57414000      12.21528000      -0.07545700      -0.00000000      -0.00000000      -0.27286500
Ge      -0.00000000       4.76552000      18.95475000       0.05722800      -0.03039100      -0.01754600      -0.18866700
Ge      -2.06353000       5.95690000      15.58501000       0.02397700      -0.00000000      -0.09959700      -0.03744500
Ge      -2.06353000       3.57414000      14.74258000       0.06519100      -0.00000000      -0.00000000       0.09125300
Ge      -0.00000000       4.76552000      11.37285000       0.04075900       0.04055100       0.02341200       0.25725900
Ge      -2.06353000       5.95690000      18.11231000      -0.08707700      -0.00000000      -0.77065700      -0.48529300
Ge       4.12706000       0.00000000      12.21528000      -0.06371800       0.00163600      -0.00094500      -0.39066500
Ge       6.19059000       1.19138000      18.95475000       0.05724900       0.00000000       0.03509200      -0.18866700
Ge       4.12706000       2.38276000      15.58501000       0.02398200       0.08625400       0.04979900      -0.03744500
Ge       4.12706000       0.00000000      14.74258000       0.02787300       0.02082600      -0.01202400       0.20820800
Ge       6.19059000       1.19138000      11.37285000       0.04058200      -0.00000000      -0.04682500       0.25725900
Ge       4.12706000       2.38276000      18.11231000      -0.08627900       0.66740900       0.38532900      -0.48529300
Ge       2.06353000       3.57414000      12.21528000      -0.06493400       0.00000000       0.00189000      -0.39066500
Ge       4.12706000       4.76552000      18.95475000       0.06046600       0.03039100      -0.01754600      -0.18866700
Ge       2.06353000       5.95690000      15.58501000       0.01612500      -0.00000000      -0.00000000      -0.21094600
Ge       2.06353000       3.57414000      14.74258000       0.02697500       0.00000000       0.02404700       0.20820800
Ge       4.12706000       4.76552000      11.37285000       0.04426400      -0.04055100       0.02341200       0.25725900
Ge       2.06353000       5.95690000      18.11231000      -0.06740300      -0.00000000      -0.00000000       0.30352700
O        2.06353000       1.19138000      20.15480000      -0.82163400      -0.00000000      -0.00000000      72.13782400
25
Lattice="8.25412627 0.0 0.0 -4.12706313 7.14828303 0.0 0.0 0.0 30.32759644" Properties=species:S:1:pos:R:3:initial_charges:R:1:forces:R:3 energy=-110.16458901 pbc="T T T"
Ge       0.00000000       0.00000000      12.21528000      -0.06587400      -0.00206100      -0.00119000      -0.37850100
Ge       2.06353000       1.19138000      18.95475000       0.82302300       0.00000000      -0.00000000     -16.03245300
Ge       0.00000000       2.38276000      15.58501000       0.02277300      -0.07379200       0.04260400      -0.05707000
Ge       0.00000000       0.00000000      14.74258000       0.02658100      -0.01708300      -0.00986300       0.18902000
Ge       2.06353000       1.19138000      11.37285000       0.04069500       0.00000000      -0.00000000       0.23818700
Ge       0.00000000       2.38276000      18.11231000      -0.06300400      -0.42867400       0.24749500      -0.21554700
Ge      -2.06353000       3.57414000      12.21528000      -0.07669600       0.00000000      -0.00000000      -0.28402900
Ge      -0.00000000       4.76552000      18.95475000       0.08650600      -0.02456800      -0.01418500      -0.20467900
Ge      -2.06353000       5.95690000      15.58501000       0.02271000      -0.00000000      -0.08520800      -0.05707000
Ge      -2.06353000       3.57414000      14.74258000       0.06560100       0.00000000      -0.00000000       0.09889300
Ge      -0.00000000       4.76552000      11.37285000       0.04277200       0.04041100       0.02333100       0.24515400
Ge      -2.06353000       5.95690000      18.11231000      -0.06501500      -0.00000000      -0.49499000      -0.21554700
Ge       4.12706000       0.00000000      12.21528000      -0.06408100       0.00206100      -0.00119000      -0.37850100
Ge       6.19059000       1.19138000      18.95475000       0.08648300       0.00000000       0.02836900      -0.20467900
Ge       4.12706000       2.38276000      15.58501000       0.02271000       0.07379200       0.04260400      -0.05707000
Ge       4.12706000       0.00000000      14.74258000       0.02758200       0.01708300      -0.00986300       0.18902000
Ge       6.19059000       1.19138000      11.37285000       0.04258500      -0.00000000      -0.04666300       0.24515400
Ge       4.12706000       2.38276000      18.11231000      -0.06398200       0.42867400       0.24749500      -0.21554700
Ge       2.06353000       3.57414000      12.21528000      -0.06544400       0.00000000       0.00238000      -0.37850100
Ge       4.12706000       4.76552000      18.95475000       0.08922800       0.02456800      -0.01418500      -0.20467900
Ge       2.06353000       5.95690000      15.58501000       0.01623200       0.00000000      -0.00000000      -0.19501900
Ge       2.06353000       3.57414000      14.74258000       0.02690400       0.00000000       0.01972600       0.18902000
Ge       4.12706000       4.76552000      11.37285000       0.04621600      -0.04041100       0.02333100       0.24515400
Ge       2.06353000       5.95690000      18.11231000      -0.06555200       0.00000000      -0.00000000       0.32300200
O        2.06353000       1.19138000      20.41980000      -0.95895400       0.00000000      -0.00000000      17.11629100
25
Lattice="8.25412627 0.0 0.0 -4.12706313 7.14828303 0.0 0.0 0.0 30.32759644" Properties=species:S:1:pos:R:3:initial_charges:R:1:forces:R:3 energy=-111.91249434 pbc="T T T"
Ge       0.00000000       0.00000000      12.21528000      -0.06631700      -0.00089200      -0.00051500      -0.35904600
Ge       2.06353000       1.19138000      18.95475000       0.64197300      -0.00000000       0.00000000       0.68255100
Ge       0.00000000       2.38276000      15.58501000       0.01178000      -0.04768200       0.02752900      -0.06876000
Ge       0.00000000       0.00000000      14.74258000       0.03124300      -0.01738700      -0.01003900       0.17644500
Ge       2.06353000       1.19138000      11.37285000       0.04237100      -0.00000000       0.00000000       0.22248500
Ge       0.00000000       2.38276000      18.11231000      -0.04802500      -0.31513900       0.18194600      -0.00887200
Ge      -2.06353000       3.57414000      12.21528000      -0.07729800      -0.00000000       0.00000000      -0.26613600
Ge      -0.00000000       4.76552000      18.95475000       0.10567700      -0.00766800      -0.00442700      -0.18543400
Ge      -2.06353000       5.95690000      15.58501000       0.02204200      -0.00000000      -0.05505900      -0.06876000
Ge      -2.06353000       3.57414000      14.74258000       0.06507000      -0.00000000       0.00000000       0.11606800
Ge      -0.00000000       4.76552000      11.37285000       0.04412100       0.04079500       0.02355300       0.22817800
Ge      -2.06353000       5.95690000      18.11231000      -0.05012800      -0.00000000      -0.36389200      -0.00887200
Ge       4.12706000       0.00000000      12.21528000      -0.06533000       0.00089200      -0.00051500      -0.35904600
Ge       6.19059000       1.19138000      18.95475000       0.10593500       0.00000000       0.00885400      -0.18543400
Ge       4.12706000       2.38276000      15.58501000       0.02199400       0.04768200       0.02752900      -0.06876000
Ge       4.12706000       0.00000000      14.74258000       0.02698400       0.01738700      -0.01003900       0.17644500
Ge       6.19059000       1.19138000      11.37285000       0.04395100      -0.00000000      -0.04710600       0.22817800
Ge       4.12706000       2.38276000      18.11231000      -0.04955500       0.31513900       0.18194600      -0.00887200
Ge       2.06353000       3.57414000      12.21528000      -0.06589200       0.00000000       0.00103000      -0.35904600
Ge       4.12706000       4.76552000      18.95475000       0.10981600       0.00766800      -0.00442700      -0.18543400
Ge       2.06353000       5.95690000      15.58501000       0.01620600      -0.00000000       0.00000000      -0.18331000
Ge       2.06353000       3.57414000      14.74258000       0.03159700       0.00000000       0.02007700       0.17644500
Ge       4.12706000       4.76552000      11.37285000       0.04789700      -0.04079500       0.02355300       0.22817800
Ge       2.06353000       5.95690000      18.11231000      -0.06532500      -0.00000000       0.00000000       0.33294200
O        2.06353000       1.19138000      20.68480000      -0.96078600      -0.00000000       0.00000000      -0.25213500
25
Lattice="8.25412627 0.0 0.0 -4.12706313 7.14828303 0.0 0.0 0.0 30.32759644" Properties=species:S:1:pos:R:3:initial_charges:R:1:forces:R:3 energy=-111.22028493 pbc="T T T"
Ge       0.00000000       0.00000000      12.21528000      -0.06563800      -0.00365500      -0.00211000      -0.39156700
Ge       2.06353000       1.19138000      18.95475000       0.54385400      -0.00000000       0.00000000       3.46474000
Ge       0.00000000       2.38276000      15.58501000       0.01135600      -0.02047000       0.01181900      -0.14632700
Ge       0.00000000       0.00000000      14.74258000       0.02946100      -0.01877200      -0.01083800       0.22547500
Ge       2.06353000       1.19138000      11.37285000       0.04226900      -0.00000000       0.00000000       0.25282100
Ge       0.00000000       2.38276000      18.11231000      -0.04411300      -0.23575700       0.13611400       0.26170200
Ge      -2.06353000       3.57414000      12.21528000      -0.07710300      -0.00000000       0.00000000      -0.28204500
Ge      -0.00000000       4.76552000      18.95475000       0.10861500       0.00351300       0.00202800      -0.23871600
Ge      -2.06353000       5.95690000      15.58501000       0.02133100      -0.00000000      -0.02363700      -0.14632700
Ge      -2.06353000       3.57414000      14.74258000       0.06143900      -0.00000000       0.00000000       0.21539500
Ge      -0.00000000       4.76552000      11.37285000       0.04328200       0.03922100       0.02264400       0.24176100
Ge      -2.06353000       5.95690000      18.11231000      -0.04466500      -0.00000000      -0.27222800       0.26170200
Ge       4.12706000       0.00000000      12.21528000      -0.06374200       0.00365500      -0.00211000      -0.39156700
Ge       6.19059000       1.19138000      18.95475000       0.10876500      -0.00000000      -0.00405600      -0.23871600
Ge       4.12706000       2.38276000      15.58501000       0.02131800       0.02047000       0.01181900      -0.14632700
Ge       4.12706000       0.00000000      14.74258000       0.02617400       0.01877200      -0.01083800       0.22547500
Ge       6.19059000       1.19138000      11.37285000       0.04316900      -0.00000000      -0.04528900       0.24176100
Ge       4.12706000       2.38276000      18.11231000      -0.04490500       0.23575700       0.13611400       0.26170200
Ge       2.06353000       3.57414000      12.21528000      -0.06517900       0.00000000       0.00422000      -0.39156700
Ge       4.12706000       4.76552000      18.95475000       0.11182400      -0.00351300       0.00202800      -0.23871600
Ge       2.06353000       5.95690000      15.58501000       0.01828300      -0.00000000       0.00000000      -0.25281900
Ge       2.06353000       3.57414000      14.74258000       0.02983100       0.00000000       0.02167600       0.22547500
Ge       4.12706000       4.76552000      11.37285000       0.04714700      -0.03922100       0.02264400       0.24176100
Ge       2.06353000       5.95690000      18.11231000      -0.06765400      -0.00000000       0.00000000       0.40457500
O        2.06353000       1.19138000      20.94980000      -0.79511900      -0.00000000       0.00000000      -3.65964800
25
Lattice="8.25412627 0.0 0.0 -4.12706313 7.14828303 0.0 0.0 0.0 30.32759644" Properties=species:S:1:pos:R:3:initial_charges:R:1:forces:R:3 energy=-110.22694756 pbc="T T T"
Ge       0.00000000       0.00000000      12.21528000      -0.06643000       0.00076400       0.00044100      -0.38453500
Ge       2.06353000       1.19138000      18.95475000       0.39307600      -0.00000000      -0.00000000       3.03669000
Ge       0.00000000       2.38276000      15.58501000       0.01173400       0.01387600      -0.00801100      -0.17355900
Ge       0.00000000       0.00000000      14.74258000       0.03509800      -0.02054200      -0.01186000       0.23114400
Ge       2.06353000       1.19138000      11.37285000       0.04219700      -0.00000000      -0.00000000       0.24905400
Ge       0.00000000       2.38276000      18.11231000      -0.04217700      -0.22125000       0.12773900       0.37689500
Ge      -2.06353000       3.57414000      12.21528000      -0.07627700      -0.00000000      -0.00000000      -0.28936400
Ge      -0.00000000       4.76552000      18.95475000       0.10554000       0.01206200       0.00696400      -0.23065900
Ge      -2.06353000       5.95690000      15.58501000       0.01037100       0.00000000       0.01602200      -0.17355900
Ge      -2.06353000       3.57414000      14.74258000       0.05965300      -0.00000000      -0.00000000       0.25913900
Ge      -0.00000000       4.76552000      11.37285000       0.04343800       0.03603400       0.02080400       0.23936800
Ge      -2.06353000       5.95690000      18.11231000      -0.04505900      -0.00000000      -0.25547700       0.37689500
Ge       4.12706000       0.00000000      12.21528000      -0.06409500      -0.00076400       0.00044100      -0.38453500
Ge       6.19059000       1.19138000      18.95475000       0.10567900      -0.00000000      -0.01392800      -0.23065900
Ge       4.12706000       2.38276000      15.58501000       0.01069600      -0.01387600      -0.00801100      -0.17355900
Ge       4.12706000       0.00000000      14.74258000       0.03640800       0.02054200      -0.01186000       0.23114400
Ge       6.19059000       1.19138000      11.37285000       0.04332500      -0.00000000      -0.04160900       0.23936800
Ge       4.12706000       2.38276000      18.11231000      -0.04477500       0.22125000       0.12773900       0.37689500
Ge       2.06353000       3.57414000      12.21528000      -0.06595700      -0.00000000      -0.00088200      -0.38453500
Ge       4.12706000       4.76552000      18.95475000       0.10882800      -0.01206200       0.00696400      -0.23065900
Ge       2.06353000       5.95690000      15.58501000       0.01773700      -0.00000000      -0.00000000      -0.26259900
Ge       2.06353000       3.57414000      14.74258000       0.03514100       0.00000000       0.02372000       0.23114400
Ge       4.12706000       4.76552000      11.37285000       0.04742600      -0.03603400       0.02080400       0.23936800
Ge       2.06353000       5.95690000      18.11231000      -0.06734300      -0.00000000      -0.00000000       0.41321400
O        2.06353000       1.19138000      21.21480000      -0.63423400      -0.00000000      -0.00000000      -3.58209500
25
Lattice="8.25412627 0.0 0.0 -4.12706313 7.14828303 0.0 0.0 0.0 30.32759644" Properties=species:S:1:pos:R:3:initial_charges:R:1:forces:R:3 energy=-109.38057758 pbc="T T T"
Ge       0.00000000       0.00000000      12.21528000      -0.06775000       0.00271100       0.00156500      -0.38521500
Ge       2.06353000       1.19138000      18.95475000       0.31911500      -0.00000000      -0.00000000       1.99656200
Ge       0.00000000       2.38276000      15.58501000       0.01221200       0.03714000      -0.02144300      -0.20863600
Ge       0.00000000       0.00000000      14.74258000       0.03003300      -0.01964100      -0.01134000       0.24270300
Ge       2.06353000       1.19138000      11.37285000       0.04257300      -0.00000000      -0.00000000       0.25430000
Ge       0.00000000       2.38276000      18.11231000      -0.04465200      -0.21064900       0.12161800       0.45318900
Ge      -2.06353000       3.57414000      12.21528000      -0.07556300      -0.00000000      -0.00000000      -0.30195600
Ge      -0.00000000       4.76552000      18.95475000       0.10023700       0.01888800       0.01090500      -0.22572900
Ge      -2.06353000       5.95690000      15.58501000       0.01110000       0.00000000       0.04288500      -0.20863600
Ge      -2.06353000       3.57414000      14.74258000       0.05651700      -0.00000000      -0.00000000       0.29289600
Ge      -0.00000000       4.76552000      11.37285000       0.04368000       0.03115400       0.01798700       0.24107600
Ge      -2.06353000       5.95690000      18.11231000      -0.04714300      -0.00000000      -0.24323600       0.45318900
Ge       4.12706000       0.00000000      12.21528000      -0.06514300      -0.00271100       0.00156500      -0.38521500
Ge       6.19059000       1.19138000      18.95475000       0.10043500      -0.00000000      -0.02181000      -0.22572900
Ge       4.12706000       2.38276000      15.58501000       0.01144000      -0.03714000      -0.02144300      -0.20863600
Ge       4.12706000       0.00000000      14.74258000       0.02994000       0.01964100      -0.01134000       0.24270300
Ge       6.19059000       1.19138000      11.37285000       0.04352300      -0.00000000      -0.03597400       0.24107600
Ge       4.12706000       2.38276000      18.11231000      -0.04738700       0.21064900       0.12161800       0.45318900
Ge       2.06353000       3.57414000      12.21528000      -0.06731300      -0.00000000      -0.00313000      -0.38521500
Ge       4.12706000       4.76552000      18.95475000       0.10315300      -0.01888800       0.01090500      -0.22572900
Ge       2.06353000       5.95690000      15.58501000       0.03517000      -0.00000000      -0.00000000      -0.27656500
Ge       2.06353000       3.57414000      14.74258000       0.02998200       0.00000000       0.02268000       0.24270300
Ge       4.12706000       4.76552000      11.37285000       0.04836700      -0.03115400       0.01798700       0.24107600
Ge       2.06353000       5.95690000      18.11231000      -0.06751000      -0.00000000      -0.00000000       0.42623200
O        2.06353000       1.19138000      21.47980000      -0.53501600      -0.00000000      -0.00000000      -2.74363300
25
Lattice="8.25412627 0.0 0.0 -4.12706313 7.14828303 0.0 0.0 0.0 30.32759644" Properties=species:S:1:pos:R:3:initial_charges:R:1:forces:R:3 energy=-108.78005029 pbc="T T T"
Ge       0.00000000       0.00000000      12.21528000      -0.07005100      -0.00023400      -0.00013500      -0.38407800
Ge       2.06353000       1.19138000      18.95475000       0.24667400       0.00000000      -0.00000000       1.09008900
Ge       0.00000000       2.38276000      15.58501000       0.01332900       0.04852500      -0.02801600      -0.23952500
Ge       0.00000000       0.00000000      14.74258000       0.03654200      -0.01321400      -0.00762900       0.25119300
Ge       2.06353000       1.19138000      11.37285000       0.04329700       0.00000000      -0.00000000       0.26172000
Ge       0.00000000       2.38276000      18.11231000      -0.04584600      -0.19301300       0.11143600       0.48260500
Ge      -2.06353000       3.57414000      12.21528000      -0.07451600       0.00000000      -0.00000000      -0.31250600
Ge      -0.00000000       4.76552000      18.95475000       0.09447200       0.02305700       0.01331200      -0.22197000
Ge      -2.06353000       5.95690000      15.58501000       0.01281900       0.00000000       0.05603200      -0.23952500
Ge      -2.06353000       3.57414000      14.74258000       0.05200800       0.00000000       0.00000000       0.30558000
Ge      -0.00000000       4.76552000      11.37285000       0.04423600       0.02520900       0.01455400       0.23558200
Ge      -2.06353000       5.95690000      18.11231000      -0.04948700      -0.00000000      -0.22287200       0.48260500
Ge       4.12706000       0.00000000      12.21528000      -0.06649200       0.00023400      -0.00013500      -0.38407800
Ge       6.19059000       1.19138000      18.95475000       0.09473800      -0.00000000      -0.02662400      -0.22197000
Ge       4.12706000       2.38276000      15.58501000       0.01319700      -0.04852500      -0.02801600      -0.23952500
Ge       4.12706000       0.00000000      14.74258000       0.03682000       0.01321400      -0.00762900       0.25119300
Ge       6.19059000       1.19138000      11.37285000       0.04408600      -0.00000000      -0.02910800       0.23558200
Ge       4.12706000       2.38276000      18.11231000      -0.04933200       0.19301300       0.11143600       0.48260500
Ge       2.06353000       3.57414000      12.21528000      -0.06959400       0.00000000       0.00027000      -0.38407800
Ge       4.12706000       4.76552000      18.95475000       0.09727400      -0.02305700       0.01331200      -0.22197000
Ge       2.06353000       5.95690000      15.58501000       0.01770600       0.00000000       0.00000000      -0.28439200
Ge       2.06353000       3.57414000      14.74258000       0.03654100       0.00000000       0.01525800       0.25119300
Ge       4.12706000       4.76552000      11.37285000       0.04881600      -0.02520900       0.01455400       0.23558200
Ge       2.06353000       5.95690000      18.11231000      -0.06742700       0.00000000      -0.00000000       0.43385000
O        2.06353000       1.19138000      21.74480000      -0.43981300       0.00000000       0.00000000      -1.86575900
25
Lattice="8.25412627 0.0 0.0 -4.12706313 7.14828303 0.0 0.0 0.0 30.32759644" Properties=species:S:1:pos:R:3:initial_charges:R:1:forces:R:3 energy=-108.37583656 pbc="T T T"
Ge       0.00000000       0.00000000      12.21528000      -0.06920200      -0.01422400      -0.00821200      -0.37510700
Ge       2.06353000       1.19138000      18.95475000       0.20050600       0.00000000       0.00000000       0.45214800
Ge       0.00000000       2.38276000      15.58501000       0.01776100       0.05512700      -0.03182800      -0.24750800
Ge       0.00000000       0.00000000      14.74258000       0.03068000      -0.01539200      -0.00888700       0.25803200
Ge       2.06353000       1.19138000      11.37285000       0.04432800       0.00000000       0.00000000       0.27167700
Ge       0.00000000       2.38276000      18.11231000      -0.05184600      -0.17599800       0.10161200       0.47581500
Ge      -2.06353000       3.57414000      12.21528000      -0.07120200       0.00000000       0.00000000      -0.33396600
Ge      -0.00000000       4.76552000      18.95475000       0.08529800       0.01458700       0.00842200      -0.22551800
Ge      -2.06353000       5.95690000      15.58501000       0.01621600       0.00000000       0.06365500      -0.24750800
Ge      -2.06353000       3.57414000      14.74258000       0.04694700       0.00000000       0.00000000       0.30427600
Ge      -0.00000000       4.76552000      11.37285000       0.04313400       0.01614100       0.00931900       0.23246100
Ge      -2.06353000       5.95690000      18.11231000      -0.05611600      -0.00000000      -0.20322500       0.47581500
Ge       4.12706000       0.00000000      12.21528000      -0.06616700       0.01422400      -0.00821200      -0.37510700
Ge       6.19059000       1.19138000      18.95475000       0.08551200      -0.00000000      -0.01684400      -0.22551800
Ge       4.12706000       2.38276000      15.58501000       0.01661000      -0.05512700      -0.03182800      -0.24750800
Ge       4.12706000       0.00000000      14.74258000       0.03124300       0.01539200      -0.00888700       0.25803200
Ge       6.19059000       1.19138000      11.37285000       0.04300100      -0.00000000      -0.01863900       0.23246100
Ge       4.12706000       2.38276000      18.11231000      -0.05496800       0.17599800       0.10161200       0.47581500
Ge       2.06353000       3.57414000      12.21528000      -0.06881300       0.00000000       0.01642400      -0.37510700
Ge       4.12706000       4.76552000      18.95475000       0.08731700      -0.01458700       0.00842200      -0.22551800
Ge       2.06353000       5.95690000      15.58501000       0.03505200       0.00000000       0.00000000      -0.28848300
Ge       2.06353000       3.57414000      14.74258000       0.03056400       0.00000000       0.01777300       0.25803200
Ge       4.12706000       4.76552000      11.37285000       0.04730100      -0.01614100       0.00931900       0.23246100
Ge       2.06353000       5.95690000      18.11231000      -0.06784700       0.00000000       0.00000000       0.42217400
O        2.06353000       1.19138000      22.00980000      -0.35531000       0.00000000       0.00000000      -1.18235300
25
Lattice="8.25412627 0.0 0.0 -4.12706313 7.14828303 0.0 0.0 0.0 30.32759644" Properties=species:S:1:pos:R:3:initial_charges:R:1:forces:R:3 energy=-108.13807441 pbc="T T T"
Ge       0.00000000       0.00000000      12.21528000      -0.06951400       0.00045100       0.00026100      -0.38008800
Ge       2.06353000       1.19138000      18.95475000       0.16907600      -0.00000000      -0.00000000       0.00152400
Ge       0.00000000       2.38276000      15.58501000       0.01853700       0.04984200      -0.02877600      -0.27674700
Ge       0.00000000       0.00000000      14.74258000       0.03678600      -0.01034700      -0.00597400       0.27649800
Ge       2.06353000       1.19138000      11.37285000       0.04408700      -0.00000000      -0.00000000       0.23840100
Ge       0.00000000       2.38276000      18.11231000      -0.05555600      -0.10483500       0.06052700       0.47380200
Ge      -2.06353000       3.57414000      12.21528000      -0.06812900      -0.00000000      -0.00000000      -0.36469900
Ge      -0.00000000       4.76552000      18.95475000       0.07948100       0.01567200       0.00904800      -0.24649100
Ge      -2.06353000       5.95690000      15.58501000       0.01692400       0.00000000       0.05755200      -0.27674700
Ge      -2.06353000       3.57414000      14.74258000       0.04084400      -0.00000000      -0.00000000       0.30247700
Ge      -0.00000000       4.76552000      11.37285000       0.04510800       0.00603500       0.00348400       0.24090200
Ge      -2.06353000       5.95690000      18.11231000      -0.05938400      -0.00000000      -0.12105300       0.47380200
Ge       4.12706000       0.00000000      12.21528000      -0.06975300      -0.00045100       0.00026100      -0.38008800
Ge       6.19059000       1.19138000      18.95475000       0.07980900      -0.00000000      -0.01809600      -0.24649100
Ge       4.12706000       2.38276000      15.58501000       0.01725700      -0.04984200      -0.02877600      -0.27674700
Ge       4.12706000       0.00000000      14.74258000       0.03778800       0.01034700      -0.00597400       0.27649800
Ge       6.19059000       1.19138000      11.37285000       0.04494100      -0.00000000      -0.00696800       0.24090200
Ge       4.12706000       2.38276000      18.11231000      -0.05902500       0.10483500       0.06052700       0.47380200
Ge       2.06353000       3.57414000      12.21528000      -0.06893300      -0.00000000      -0.00052100      -0.38008800
Ge       4.12706000       4.76552000      18.95475000       0.08042800      -0.01567200       0.00904800      -0.24649100
Ge       2.06353000       5.95690000      15.58501000       0.01712900      -0.00000000      -0.00000000      -0.29494800
Ge       2.06353000       3.57414000      14.74258000       0.03678500       0.00000000       0.01194800       0.27649800
Ge       4.12706000       4.76552000      11.37285000       0.04546900      -0.00603500       0.00348400       0.24090200
Ge       2.06353000       5.95690000      18.11231000      -0.06600400      -0.00000000      -0.00000000       0.43120800
O        2.06353000       1.19138000      22.27480000      -0.29415300      -0.00000000      -0.00000000      -0.57758600
25
Lattice="8.25412627 0.0 0.0 -4.12706313 7.14828303 0.0 0.0 0.0 30.32759644" Properties=species:S:1:pos:R:3:initial_charges:R:1:forces:R:3 energy=-107.94672366 pbc="T T T"
Ge       0.00000000       0.00000000      12.21528000      -0.06971100      -0.00420500      -0.00242800      -0.40033200
Ge       2.06353000       1.19138000      18.95475000       0.13468600      -0.00000000       0.00000000      -0.00916000
Ge       0.00000000       2.38276000      15.58501000       0.01730500       0.02237300      -0.01291700      -0.29049300
Ge       0.00000000       0.00000000      14.74258000       0.03728000      -0.00088200      -0.00051000       0.28873700
Ge       2.06353000       1.19138000      11.37285000       0.04534600      -0.00000000       0.00000000       0.27169100
Ge       0.00000000       2.38276000      18.11231000      -0.05582600      -0.07454400       0.04303800       0.48115000